 Gaussian 16, Revision B.01,
 Gaussian 16:  ES64L-G16RevB.01 20-Dec-2017

 ----------------------------------------------------------------------
 # PBE0/Gen 5D NoSymm SCF=(Tight,MaxCyc=500,NoVarAcc,XQC) Int=(Grid=Ult
 raFine,Acc2e=12)
 ----------------------------------------------------------------------

 ---------------------------------
 Single point of B10C2^+2 in vacuo
 ---------------------------------
 Symbolic Z-matrix:
 Charge =  2 Multiplicity = 1

                          Input orientation:
 ---------------------------------------------------------------------
 Center     Atomic      Atomic             Coordinates (Angstroms)
 Number     Number       Type             X           Y           Z
 ---------------------------------------------------------------------
      1          5           0        1.022410   -1.738153   -0.071646
      2          5           0       -0.505741   -2.274952   -0.331912
      3          6           0       -1.636000   -1.427286   -0.163825
      4          5           0       -1.953508    0.000088   -0.067429
      5          6           0       -1.635868    1.427431   -0.163831
      6          5           0       -0.505533    2.274998   -0.331908
      7          5           0        1.022567    1.738054   -0.071648
      8          5           0        2.316813    0.775594   -0.233133
      9          5           0        2.316730   -0.775796   -0.233135
     10          5           0        1.044801   -0.000039    0.573429
     11          5           0       -0.416186   -0.852242    0.580284
     12          5           0       -0.416111    0.852272    0.580286
 ---------------------------------------------------------------------

 SCF Done:  E(RPBE0DH) =  -323.207923077     A.U. after   13 cycles
 E2(PBE0DH) =    -0.2050923971D+00 E(PBE0DH) =    -0.32341301547370D+03

 Alpha  occ. eigenvalues --  -10.98561 -10.98560  -7.52549  -7.50768  -7.50718
 Alpha  occ. eigenvalues --   -7.49768  -7.49768  -7.49649  -7.49649  -7.48668
 Alpha  occ. eigenvalues --   -7.46070  -7.45951  -1.33336  -1.26914  -1.19243
 Alpha  occ. eigenvalues --   -1.06752  -1.06011  -1.04043  -0.93785  -0.87709
 Alpha  occ. eigenvalues --   -0.85130  -0.84535  -0.82084  -0.78627  -0.76976
 Alpha  occ. eigenvalues --   -0.73732  -0.72511  -0.71712  -0.69193  -0.64478
 Alpha virt. eigenvalues --   -0.45946  -0.45082  -0.43425  -0.40564  -0.34951
 Alpha virt. eigenvalues --   -0.34647  -0.32865  -0.31799  -0.31554  -0.30127
 Alpha virt. eigenvalues --   -0.29549  -0.24791  -0.23263  -0.22252  -0.20537

 Mulliken charges:
               1
     1  B    0.143579
     2  B    0.328711
     3  C   -0.249681
     4  B    0.300798
     5  C   -0.249689
     6  B    0.328766
     7  B    0.143558
     8  B    0.096173
     9  B    0.096203
    10  B    0.973807
    11  B    0.043881
    12  B    0.043894
 Sum of Mulliken charges =   2.00000

 Dipole moment (field-independent basis, Debye):
    X=              0.7886    Y=             -0.0000    Z=              1.7301  Tot=              1.9013
 Quadrupole moment (field-independent basis, Debye-Ang):
   XX=            -34.6313   YY=            -29.4886   ZZ=            -55.5860
   XY=              0.0002   XZ=              1.0628   YZ=             -0.0001

 Normal termination of Gaussian 16 at Wed Apr  1 21:05:46 2020.
