 Gaussian 16, Revision B.01,
 Gaussian 16:  ES64L-G16RevB.01 20-Dec-2017

 ----------------------------------------------------------------------
 # UPBE0/Gen 5D NoSymm SCF=(Tight,MaxCyc=500,NoVarAcc,XQC) Int=(Grid=Ul
 traFine,Acc2e=12)
 ----------------------------------------------------------------------

 ----------------------------------------
 Single point of B10C2^+1 2S+1=2 in vacuo
 ----------------------------------------
 Symbolic Z-matrix:
 Charge =  1 Multiplicity = 2

                          Input orientation:
 ---------------------------------------------------------------------
 Center     Atomic      Atomic             Coordinates (Angstroms)
 Number     Number       Type             X           Y           Z
 ---------------------------------------------------------------------
      1          5           0        1.022410   -1.738153   -0.071646
      2          5           0       -0.505741   -2.274952   -0.331912
      3          6           0       -1.636000   -1.427286   -0.163825
      4          5           0       -1.953508    0.000088   -0.067429
      5          6           0       -1.635868    1.427431   -0.163831
      6          5           0       -0.505533    2.274998   -0.331908
      7          5           0        1.022567    1.738054   -0.071648
      8          5           0        2.316813    0.775594   -0.233133
      9          5           0        2.316730   -0.775796   -0.233135
     10          5           0        1.044801   -0.000039    0.573429
     11          5           0       -0.416186   -0.852242    0.580284
     12          5           0       -0.416111    0.852272    0.580286
 ---------------------------------------------------------------------

 SCF Done:  E(UPBE0DH) =  -323.637779327     A.U. after   20 cycles
 E2(PBE0DH) =    -0.2104158496D+00 E(PBE0DH) =    -0.32384819517667D+03

 Alpha  occ. eigenvalues --  -10.79357 -10.79356  -7.34223  -7.32694  -7.32644
 Alpha  occ. eigenvalues --   -7.30921  -7.30920  -7.30382  -7.28107  -7.28105
 Alpha  occ. eigenvalues --   -7.26967  -7.26851  -1.15083  -1.08721  -1.00445
 Alpha  occ. eigenvalues --   -0.88351  -0.87666  -0.85480  -0.75158  -0.69483
 Alpha  occ. eigenvalues --   -0.66831  -0.66431  -0.64918  -0.60609  -0.58070
 Alpha  occ. eigenvalues --   -0.55796  -0.55616  -0.53981  -0.52726  -0.46855
 Alpha  occ. eigenvalues --   -0.39970
 Alpha virt. eigenvalues --   -0.27948  -0.26433  -0.23366  -0.17787  -0.17386
 Alpha virt. eigenvalues --   -0.16009  -0.15056  -0.14644  -0.14012  -0.12978
 Alpha virt. eigenvalues --   -0.10615  -0.07991  -0.07490  -0.07284  -0.06538

  Beta  occ. eigenvalues --  -10.78938 -10.78937  -7.34282  -7.32770  -7.32720
  Beta  occ. eigenvalues --   -7.31069  -7.31069  -7.30563  -7.27561  -7.27560
  Beta  occ. eigenvalues --   -7.26966  -7.26847  -1.14558  -1.07958  -0.99823
  Beta  occ. eigenvalues --   -0.87599  -0.86562  -0.85367  -0.74574  -0.68606
  Beta  occ. eigenvalues --   -0.66409  -0.65953  -0.63614  -0.60013  -0.57656
  Beta  occ. eigenvalues --   -0.55564  -0.53449  -0.53000  -0.50431  -0.46907
  Beta virt. eigenvalues --   -0.27476  -0.25643  -0.25196  -0.23479  -0.17735
  Beta virt. eigenvalues --   -0.17549  -0.15116  -0.13938  -0.13637  -0.12162
  Beta virt. eigenvalues --   -0.12078  -0.10244  -0.07823  -0.07267  -0.07049

 Mulliken charges and spin densities:
               1          2
     1  B   -0.047565   0.455371
     2  B    0.233079  -0.070267
     3  C   -0.353457   0.224356
     4  B    0.243375  -0.028893
     5  C   -0.353462   0.224345
     6  B    0.233133  -0.070270
     7  B   -0.047579   0.455347
     8  B    0.005126   0.057911
     9  B    0.005157   0.057901
    10  B    0.999459  -0.215566
    11  B    0.041361  -0.045119
    12  B    0.041372  -0.045114
 Sum of Mulliken charges =   1.00000   1.00000

 Dipole moment (field-independent basis, Debye):
    X=             -0.7490    Y=              0.0001    Z=              1.5771  Tot=              1.7459
 Quadrupole moment (field-independent basis, Debye-Ang):
   XX=            -52.8043   YY=            -50.0929   ZZ=            -60.9348
   XY=              0.0001   XZ=              0.6240   YZ=             -0.0000

 Normal termination of Gaussian 16 at Mon Apr 27 06:34:08 2020.
