 Gaussian 16, Revision B.01,
 Gaussian 16:  ES64L-G16RevB.01 20-Dec-2017

 ----------------------------------------------------------------------
 # UPBE0/Gen 5D NoSymm SCF=(Tight,MaxCyc=500,NoVarAcc,XQC) Int=(Grid=Ul
 traFine,Acc2e=12)
 ----------------------------------------------------------------------

 ----------------------------------------
 Single point of B10C2^+3 2S+1=2 in vacuo
 ----------------------------------------
 Symbolic Z-matrix:
 Charge =  3 Multiplicity = 2

                          Input orientation:
 ---------------------------------------------------------------------
 Center     Atomic      Atomic             Coordinates (Angstroms)
 Number     Number       Type             X           Y           Z
 ---------------------------------------------------------------------
      1          5           0        1.022410   -1.738153   -0.071646
      2          5           0       -0.505741   -2.274952   -0.331912
      3          6           0       -1.636000   -1.427286   -0.163825
      4          5           0       -1.953508    0.000088   -0.067429
      5          6           0       -1.635868    1.427431   -0.163831
      6          5           0       -0.505533    2.274998   -0.331908
      7          5           0        1.022567    1.738054   -0.071648
      8          5           0        2.316813    0.775594   -0.233133
      9          5           0        2.316730   -0.775796   -0.233135
     10          5           0        1.044801   -0.000039    0.573429
     11          5           0       -0.416186   -0.852242    0.580284
     12          5           0       -0.416111    0.852272    0.580286
 ---------------------------------------------------------------------

 SCF Done:  E(UPBE0DH) =  -322.532204902     A.U. after   21 cycles
 E2(PBE0DH) =    -0.1978254281D+00 E(PBE0DH) =    -0.32273003033042D+03

 Alpha  occ. eigenvalues --  -11.16759 -11.16758  -7.71611  -7.70418  -7.69894
 Alpha  occ. eigenvalues --   -7.69848  -7.69628  -7.69627  -7.68866  -7.68836
 Alpha  occ. eigenvalues --   -7.68789  -7.68696  -1.51867  -1.45221  -1.39582
 Alpha  occ. eigenvalues --   -1.25826  -1.24718  -1.24446  -1.12817  -1.06347
 Alpha  occ. eigenvalues --   -1.04021  -1.02862  -1.00161  -0.97454  -0.97168
 Alpha  occ. eigenvalues --   -0.94140  -0.91152  -0.89272  -0.88459  -0.85599
 Alpha virt. eigenvalues --   -0.63947  -0.63776  -0.61393  -0.59877  -0.53847
 Alpha virt. eigenvalues --   -0.52935  -0.51012  -0.50627  -0.49597  -0.48558
 Alpha virt. eigenvalues --   -0.46776  -0.41628  -0.40132  -0.39750  -0.34557

  Beta  occ. eigenvalues --  -11.16909 -11.16908  -7.71521  -7.70066  -7.69809
  Beta  occ. eigenvalues --   -7.69768  -7.69201  -7.69200  -7.69001  -7.69001
  Beta  occ. eigenvalues --   -7.68217  -7.68104  -1.51732  -1.45187  -1.38509
  Beta  occ. eigenvalues --   -1.25790  -1.24131  -1.22955  -1.12380  -1.06088
  Beta  occ. eigenvalues --   -1.03562  -1.02442  -1.00041  -0.96542  -0.95844
  Beta  occ. eigenvalues --   -0.90956  -0.90007  -0.89159  -0.87846
  Beta virt. eigenvalues --   -0.70578  -0.63831  -0.62889  -0.60786  -0.56164
  Beta virt. eigenvalues --   -0.52416  -0.52140  -0.49913  -0.48705  -0.48250
  Beta virt. eigenvalues --   -0.47714  -0.46494  -0.40952  -0.39711  -0.39596

 Mulliken charges and spin densities:
               1          2
     1  B    0.218425  -0.094202
     2  B    0.445864   0.170172
     3  C   -0.159357  -0.049351
     4  B    0.357882   0.049087
     5  C   -0.159366  -0.049347
     6  B    0.445918   0.170164
     7  B    0.218406  -0.094200
     8  B    0.277463   0.322943
     9  B    0.277490   0.322927
    10  B    0.991721   0.139503
    11  B    0.042771   0.056155
    12  B    0.042781   0.056150
 Sum of Mulliken charges =   3.00000   1.00000

 Dipole moment (field-independent basis, Debye):
    X=              3.5051    Y=             -0.0002    Z=              0.7134  Tot=              3.5770
 Quadrupole moment (field-independent basis, Debye-Ang):
   XX=            -12.5387   YY=            -11.6841   ZZ=            -50.8471
   XY=              0.0001   XZ=             -0.9441   YZ=              0.0000

 Normal termination of Gaussian 16 at Mon Apr 27 08:48:28 2020.
