 Gaussian 16, Revision B.01,
 Gaussian 16:  ES64L-G16RevB.01 20-Dec-2017

 ----------------------------------------------------------------------
 # UPBE0/Gen 5D NoSymm SCF=(Tight,MaxCyc=500,NoVarAcc,XQC) Int=(Grid=Ul
 traFine,Acc2e=12)
 ----------------------------------------------------------------------

 ----------------------------------------------------
 Single point of B2H6^-1 in vacuo for dual descriptor
 ----------------------------------------------------
 Symbolic Z-matrix:
 Charge = -1 Multiplicity = 2

                          Input orientation:
 ---------------------------------------------------------------------
 Center     Atomic      Atomic             Coordinates (Angstroms)
 Number     Number       Type             X           Y           Z
 ---------------------------------------------------------------------
      1          5           0        0.871395    0.000000    0.000000
      2          1           0        1.448055    1.036062    0.000000
      3          1           0        1.448057   -1.036061    0.000000
      4          5           0       -0.871395    0.000000    0.000000
      5          1           0       -1.448057   -1.036061    0.000000
      6          1           0        0.000000   -0.000002    0.977955
      7          1           0       -1.448055    1.036062    0.000000
      8          1           0        0.000000   -0.000001   -0.977955
 ---------------------------------------------------------------------

 SCF Done:  E(UPBE0DH) =  -53.1428332495     A.U. after   14 cycles
 E2(PBE0DH) =    -0.4755443613D-01 E(PBE0DH) =    -0.53190387685630D+02

 Alpha  occ. eigenvalues --   -6.82526  -6.82487  -0.53631  -0.32448  -0.27284
 Alpha  occ. eigenvalues --   -0.23547  -0.21380  -0.17031   0.07722
 Alpha virt. eigenvalues --    0.13706   0.14611   0.18754   0.19228   0.21074
 Alpha virt. eigenvalues --    0.21615   0.22029   0.22238   0.24519   0.25449
 Alpha virt. eigenvalues --    0.26092   0.26912   0.27093   0.27336   0.28104

  Beta  occ. eigenvalues --   -6.82081  -6.82036  -0.52476  -0.30629  -0.24650
  Beta  occ. eigenvalues --   -0.23299  -0.21047  -0.16820
  Beta virt. eigenvalues --    0.14736   0.15633   0.19765   0.20458   0.20680
  Beta virt. eigenvalues --    0.21680   0.22231   0.22781   0.23128   0.26325
  Beta virt. eigenvalues --    0.26847   0.27459   0.28279   0.28829   0.29253

 Mulliken charges and spin densities:
               1          2
     1  B   -0.649139   1.087782
     2  H   -0.074092  -0.124923
     3  H   -0.074091  -0.124924
     4  B   -0.649139   1.087782
     5  H   -0.074091  -0.124924
     6  H    0.297322  -0.337935
     7  H   -0.074092  -0.124923
     8  H    0.297322  -0.337935
 Sum of Mulliken charges =  -1.00000   1.00000

 Dipole moment (field-independent basis, Debye):
    X=              0.0000    Y=             -0.0000    Z=             -0.0000  Tot=              0.0000
 Quadrupole moment (field-independent basis, Debye-Ang):
   XX=            -34.5909   YY=            -24.0082   ZZ=            -26.2239
   XY=              0.0000   XZ=             -0.0000   YZ=             -0.0000

 Normal termination of Gaussian 16 at Mon Apr  6 22:36:56 2020.
