 Gaussian 16, Revision B.01,
 Gaussian 16:  ES64L-G16RevB.01 20-Dec-2017

 ----------------------------------------------------------------------
 # UPBE0/Gen 5D NoSymm SCF=(Tight,MaxCyc=500,NoVarAcc,XQC) Int=(Grid=Ul
 traFine,Acc2e=12)
 ----------------------------------------------------------------------

 ----------------------------------------------------
 Single point of B2H6^+1 in vacuo for dual descriptor
 ----------------------------------------------------
 Symbolic Z-matrix:
 Charge =  1 Multiplicity = 2

                          Input orientation:
 ---------------------------------------------------------------------
 Center     Atomic      Atomic             Coordinates (Angstroms)
 Number     Number       Type             X           Y           Z
 ---------------------------------------------------------------------
      1          5           0        0.871395    0.000000    0.000000
      2          1           0        1.448055    1.036062    0.000000
      3          1           0        1.448057   -1.036061    0.000000
      4          5           0       -0.871395    0.000000    0.000000
      5          1           0       -1.448057   -1.036061    0.000000
      6          1           0        0.000000   -0.000002    0.977955
      7          1           0       -1.448055    1.036062    0.000000
      8          1           0        0.000000   -0.000001   -0.977955
 ---------------------------------------------------------------------

 SCF Done:  E(UPBE0DH) =  -52.7418070992     A.U. after   10 cycles
 E2(PBE0DH) =    -0.4207143210D-01 E(PBE0DH) =    -0.52783878531274D+02

 Alpha  occ. eigenvalues --   -7.36098  -7.36051  -1.04002  -0.83565  -0.75969
 Alpha  occ. eigenvalues --   -0.74497  -0.72555  -0.69885
 Alpha virt. eigenvalues --   -0.24300  -0.14412  -0.12326  -0.10276  -0.09710
 Alpha virt. eigenvalues --   -0.09209  -0.07249  -0.07164  -0.06380  -0.04796
 Alpha virt. eigenvalues --   -0.03356  -0.02992  -0.02056  -0.00254  -0.00019

  Beta  occ. eigenvalues --   -7.35905  -7.35851  -1.02654  -0.77747  -0.74480
  Beta  occ. eigenvalues --   -0.68704  -0.66897
  Beta virt. eigenvalues --   -0.49517  -0.23983  -0.14110  -0.11948  -0.09928
  Beta virt. eigenvalues --   -0.09178  -0.08986  -0.06937  -0.06309  -0.05688
  Beta virt. eigenvalues --   -0.04069  -0.02854  -0.02052  -0.02021  -0.00167

 Mulliken charges and spin densities:
               1          2
     1  B    0.359807   0.062192
     2  H    0.026644   0.215402
     3  H    0.026644   0.215401
     4  B    0.359807   0.062192
     5  H    0.026644   0.215401
     6  H    0.086906   0.007004
     7  H    0.026644   0.215402
     8  H    0.086906   0.007004
 Sum of Mulliken charges =   1.00000   1.00000

 Dipole moment (field-independent basis, Debye):
    X=             -0.0000    Y=              0.0000    Z=              0.0000  Tot=              0.0000
 Quadrupole moment (field-independent basis, Debye-Ang):
   XX=             -7.2841   YY=            -10.5963   ZZ=            -12.1362
   XY=             -0.0000   XZ=             -0.0000   YZ=             -0.0000

 Normal termination of Gaussian 16 at Mon Apr  6 22:38:37 2020.
