 Gaussian 16, Revision B.01,
 Gaussian 16:  ES64L-G16RevB.01 20-Dec-2017

 ----------------------------------------------------------------------
 # PBE0/Gen 5D NoSymm SCF=(Tight,MaxCyc=500,NoVarAcc,XQC) Int=(Grid=Ult
 raFine,Acc2e=12)
 ----------------------------------------------------------------------

 -------------------------------------------------
 Single point of B2H6 in vacuo for dual descriptor
 -------------------------------------------------
 Symbolic Z-matrix:
 Charge =  0 Multiplicity = 1

                          Input orientation:
 ---------------------------------------------------------------------
 Center     Atomic      Atomic             Coordinates (Angstroms)
 Number     Number       Type             X           Y           Z
 ---------------------------------------------------------------------
      1          5           0        0.871395    0.000000    0.000000
      2          1           0        1.448055    1.036062    0.000000
      3          1           0        1.448057   -1.036061    0.000000
      4          5           0       -0.871395    0.000000    0.000000
      5          1           0       -1.448057   -1.036061    0.000000
      6          1           0        0.000000   -0.000002    0.977955
      7          1           0       -1.448055    1.036062    0.000000
      8          1           0        0.000000   -0.000001   -0.977955
 ---------------------------------------------------------------------

 SCF Done:  E(RPBE0DH) =  -53.1834209424     A.U. after    8 cycles
 E2(PBE0DH) =    -0.4248144912D-01 E(PBE0DH) =    -0.53225902391481D+02

 Alpha  occ. eigenvalues --   -7.07041  -7.06995  -0.76482  -0.53699  -0.48858
 Alpha  occ. eigenvalues --   -0.45572  -0.43625  -0.38836
 Alpha virt. eigenvalues --    0.00428   0.02362   0.03652   0.06258   0.06500
 Alpha virt. eigenvalues --    0.07162   0.08851   0.09257   0.09798   0.12723
 Alpha virt. eigenvalues --    0.13288   0.13439   0.13649   0.14985   0.15429

 Mulliken charges:
               1
     1  B    0.337467
     2  H   -0.162682
     3  H   -0.162682
     4  B    0.337467
     5  H   -0.162682
     6  H   -0.012102
     7  H   -0.162682
     8  H   -0.012102
 Sum of Mulliken charges =  -0.00000

 Dipole moment (field-independent basis, Debye):
    X=             -0.0000    Y=             -0.0000    Z=              0.0000  Tot=              0.0000
 Quadrupole moment (field-independent basis, Debye-Ang):
   XX=            -18.7330   YY=            -17.7908   ZZ=            -14.7242
   XY=              0.0000   XZ=             -0.0000   YZ=             -0.0000

 Normal termination of Gaussian 16 at Mon Apr  6 22:30:35 2020.
