 Gaussian 16, Revision B.01,
 Gaussian 16:  ES64L-G16RevB.01 20-Dec-2017

 ----------------------------------------------------------------------
 # PBE0/Gen 5D NoSymm SCF=(Tight,MaxCyc=500,NoVarAcc,XQC) Int=(Grid=Ult
 raFine,Acc2e=12)
 ----------------------------------------------------------------------

 ----------------------------------
 Single point of B9Be2C^-1 in vacuo
 ----------------------------------
 Symbolic Z-matrix:
 Charge = -1 Multiplicity = 1

                          Input orientation:
 ---------------------------------------------------------------------
 Center     Atomic      Atomic             Coordinates (Angstroms)
 Number     Number       Type             X           Y           Z
 ---------------------------------------------------------------------
      1          6           0       -0.704454    2.310537    0.000000
      2          5           0        0.718664    2.468135    0.000000
      3          5           0        0.000000    0.965394    0.000000
      4          5           0        2.518942   -0.628113    0.000000
      5          4           0       -1.930845    1.140251    0.000000
      6          4           0        2.006708    1.132999    0.000000
      7          5           0        0.877567   -0.468308    0.000000
      8          5           0       -0.000539   -2.013751    0.000000
      9          5           0        1.634238   -1.903721    0.000000
     10          5           0       -1.627225   -1.905212    0.000000
     11          5           0       -0.844259   -0.494973    0.000000
     12          5           0       -2.492733   -0.610697    0.000000
 ---------------------------------------------------------------------

 SCF Done:  E(RPBE0DH) =  -290.686944074     A.U. after   14 cycles
 E2(PBE0DH) =    -0.1950967929D+00 E(PBE0DH) =    -0.29088204086740D+03

 Alpha  occ. eigenvalues --  -10.44285  -6.95051  -6.94373  -6.93396  -6.93156
 Alpha  occ. eigenvalues --   -6.92537  -6.91500  -6.91352  -6.91101  -6.90954
 Alpha  occ. eigenvalues --   -4.11739  -4.11729  -0.72416  -0.66931  -0.58265
 Alpha  occ. eigenvalues --   -0.49973  -0.45359  -0.42820  -0.33041  -0.28879
 Alpha  occ. eigenvalues --   -0.26963  -0.24736  -0.22565  -0.20760  -0.20228
 Alpha  occ. eigenvalues --   -0.19429  -0.16105  -0.13832  -0.13449  -0.12213
 Alpha virt. eigenvalues --    0.06549   0.08348   0.09475   0.09560   0.10988
 Alpha virt. eigenvalues --    0.11647   0.11986   0.13185   0.13581   0.13998
 Alpha virt. eigenvalues --    0.15053   0.15486   0.15941   0.16703   0.16903

 Mulliken charges:
               1
     1  C   -0.370296
     2  B   -0.183459
     3  B    0.818836
     4  B   -0.280387
     5  Be  -0.296435
     6  Be  -0.249951
     7  B   -0.226374
     8  B    0.062964
     9  B   -0.304805
    10  B   -0.415196
    11  B    0.517837
    12  B   -0.072733
 Sum of Mulliken charges =  -1.00000

 Dipole moment (field-independent basis, Debye):
    X=             -0.1874    Y=              1.2974    Z=             -0.0000  Tot=              1.3108
 Quadrupole moment (field-independent basis, Debye-Ang):
   XX=           -106.6097   YY=            -98.3362   ZZ=            -71.9138
   XY=             -1.4807   XZ=             -0.0000   YZ=              0.0000

 Normal termination of Gaussian 16 at Thu Apr  2 01:38:05 2020.
