 Gaussian 16, Revision B.01,
 Gaussian 16:  ES64L-G16RevB.01 20-Dec-2017

 ----------------------------------------------------------------------
 # UPBE0/Gen 5D NoSymm SCF=(Tight,MaxCyc=500,NoVarAcc,XQC) Int=(Grid=Ul
 traFine,Acc2e=12)
 ----------------------------------------------------------------------

 ---------------------------------------------
 Single point of B9Be2C^-2 and 2S+1=2 in vacuo
 ---------------------------------------------
 Symbolic Z-matrix:
 Charge = -2 Multiplicity = 2

                          Input orientation:
 ---------------------------------------------------------------------
 Center     Atomic      Atomic             Coordinates (Angstroms)
 Number     Number       Type             X           Y           Z
 ---------------------------------------------------------------------
      1          6           0       -0.704454    2.310537    0.000000
      2          5           0        0.718664    2.468135    0.000000
      3          5           0        0.000000    0.965394    0.000000
      4          5           0        2.518942   -0.628113    0.000000
      5          4           0       -1.930845    1.140251    0.000000
      6          4           0        2.006708    1.132999    0.000000
      7          5           0        0.877567   -0.468308    0.000000
      8          5           0       -0.000539   -2.013751    0.000000
      9          5           0        1.634238   -1.903721    0.000000
     10          5           0       -1.627225   -1.905212    0.000000
     11          5           0       -0.844259   -0.494973    0.000000
     12          5           0       -2.492733   -0.610697    0.000000
 ---------------------------------------------------------------------

 SCF Done:  E(UPBE0DH) =  -290.599555473     A.U. after   30 cycles
 E2(PBE0DH) =    -0.2028028814D+00 E(PBE0DH) =    -0.29080235835424D+03

 Alpha  occ. eigenvalues --  -10.27589  -6.78073  -6.77578  -6.77572  -6.77139
 Alpha  occ. eigenvalues --   -6.76942  -6.76607  -6.76152  -6.75653  -6.75315
 Alpha  occ. eigenvalues --   -3.96447  -3.96107  -0.56476  -0.50967  -0.42611
 Alpha  occ. eigenvalues --   -0.34180  -0.29756  -0.26906  -0.17198  -0.13083
 Alpha  occ. eigenvalues --   -0.12448  -0.09273  -0.07366  -0.05526  -0.05406
 Alpha  occ. eigenvalues --   -0.05002  -0.01363   0.01117   0.01174   0.02790
 Alpha  occ. eigenvalues --    0.10824
 Alpha virt. eigenvalues --    0.19404   0.19958   0.20200   0.21265   0.21833
 Alpha virt. eigenvalues --    0.21843   0.22879   0.23017   0.23776   0.24222
 Alpha virt. eigenvalues --    0.25717   0.26152   0.26178   0.26722   0.27246

  Beta  occ. eigenvalues --  -10.27179  -6.78002  -6.77610  -6.77535  -6.76878
  Beta  occ. eigenvalues --   -6.76766  -6.76630  -6.76249  -6.75651  -6.75185
  Beta  occ. eigenvalues --   -3.96474  -3.96049  -0.55643  -0.50230  -0.42500
  Beta  occ. eigenvalues --   -0.32974  -0.29304  -0.26586  -0.16795  -0.12345
  Beta  occ. eigenvalues --   -0.10073  -0.08944  -0.07084  -0.04983  -0.04853
  Beta  occ. eigenvalues --   -0.02613  -0.01287   0.01253   0.01497   0.02940
  Beta virt. eigenvalues --    0.19446   0.20023   0.20256   0.21329   0.21890
  Beta virt. eigenvalues --    0.22443   0.23072   0.23366   0.23481   0.23915
  Beta virt. eigenvalues --    0.24313   0.25795   0.26256   0.26502   0.26783

 Mulliken charges and spin densities:
               1          2
     1  C   -0.341859   0.254891
     2  B   -0.582454   0.027946
     3  B    0.904158   0.406118
     4  B   -0.741740  -0.090850
     5  Be  -0.342512  -0.016064
     6  Be  -0.402974   0.107672
     7  B    0.348444  -0.298393
     8  B    0.082431   0.492067
     9  B   -0.760512   0.275654
    10  B   -0.823485   0.061795
    11  B    1.130665  -0.190421
    12  B   -0.470163  -0.030415
 Sum of Mulliken charges =  -2.00000   1.00000

 Dipole moment (field-independent basis, Debye):
    X=             -0.7019    Y=              1.9421    Z=             -0.0000  Tot=              2.0650
 Quadrupole moment (field-independent basis, Debye-Ang):
   XX=           -132.6229   YY=           -126.6809   ZZ=            -81.7184
   XY=             -1.4331   XZ=              0.0000   YZ=              0.0000

 Normal termination of Gaussian 16 at Sun Apr 26 08:32:38 2020.
