 Gaussian 16, Revision B.01,
 Gaussian 16:  ES64L-G16RevB.01 20-Dec-2017

 ----------------------------------------------------------------------
 # UPBE0/Gen 5D NoSymm SCF=(Tight,MaxCyc=500,NoVarAcc,XQC) Int=(Grid=Ul
 traFine,Acc2e=12)
 ----------------------------------------------------------------------

 ------------------------------------------
 Single point of B9Be2C and 2S+1=2 in vacuo
 ------------------------------------------
 Symbolic Z-matrix:
 Charge =  0 Multiplicity = 2

                          Input orientation:
 ---------------------------------------------------------------------
 Center     Atomic      Atomic             Coordinates (Angstroms)
 Number     Number       Type             X           Y           Z
 ---------------------------------------------------------------------
      1          6           0       -0.704454    2.310537    0.000000
      2          5           0        0.718664    2.468135    0.000000
      3          5           0        0.000000    0.965394    0.000000
      4          5           0        2.518942   -0.628113    0.000000
      5          4           0       -1.930845    1.140251    0.000000
      6          4           0        2.006708    1.132999    0.000000
      7          5           0        0.877567   -0.468308    0.000000
      8          5           0       -0.000539   -2.013751    0.000000
      9          5           0        1.634238   -1.903721    0.000000
     10          5           0       -1.627225   -1.905212    0.000000
     11          5           0       -0.844259   -0.494973    0.000000
     12          5           0       -2.492733   -0.610697    0.000000
 ---------------------------------------------------------------------

 SCF Done:  E(UPBE0DH) =  -290.539902100     A.U. after   25 cycles
 E2(PBE0DH) =    -0.1910425035D+00 E(PBE0DH) =    -0.29073094460381D+03

 Alpha  occ. eigenvalues --  -10.60650  -7.12906  -7.11778  -7.11165  -7.10404
 Alpha  occ. eigenvalues --   -7.09812  -7.09261  -7.08866  -7.07553  -7.07082
 Alpha  occ. eigenvalues --   -4.28640  -4.28482  -0.89410  -0.83694  -0.75228
 Alpha  occ. eigenvalues --   -0.67481  -0.61750  -0.60476  -0.49749  -0.45656
 Alpha  occ. eigenvalues --   -0.43353  -0.41267  -0.39506  -0.38326  -0.37308
 Alpha  occ. eigenvalues --   -0.35663  -0.32049  -0.30844  -0.29901  -0.28406
 Alpha virt. eigenvalues --   -0.09328  -0.06556  -0.06461  -0.06164   0.00624
 Alpha virt. eigenvalues --    0.00961   0.01727   0.02374   0.02713   0.03562
 Alpha virt. eigenvalues --    0.03898   0.03951   0.04894   0.05005   0.05120

  Beta  occ. eigenvalues --  -10.60784  -7.12627  -7.11324  -7.11148  -7.10319
  Beta  occ. eigenvalues --   -7.09716  -7.08814  -7.08243  -7.07540  -7.07316
  Beta  occ. eigenvalues --   -4.28576  -4.28537  -0.89175  -0.83282  -0.74344
  Beta  occ. eigenvalues --   -0.66291  -0.61738  -0.58647  -0.49150  -0.45341
  Beta  occ. eigenvalues --   -0.43272  -0.40596  -0.38226  -0.35845  -0.35546
  Beta  occ. eigenvalues --   -0.34706  -0.30513  -0.29625  -0.28992
  Beta virt. eigenvalues --   -0.17169  -0.09072  -0.06672  -0.05532  -0.03513
  Beta virt. eigenvalues --    0.00764   0.01891   0.02225   0.02940   0.03438
  Beta virt. eigenvalues --    0.03808   0.04212   0.04422   0.05246   0.05499

 Mulliken charges and spin densities:
               1          2
     1  C   -0.355700  -0.089838
     2  B    0.027476   0.302296
     3  B    0.763120   0.205009
     4  B   -0.103394   0.033232
     5  Be  -0.181273   0.088932
     6  Be  -0.153079  -0.009983
     7  B   -0.275301   0.048949
     8  B    0.035360  -0.088318
     9  B   -0.101451   0.266273
    10  B   -0.148586   0.367675
    11  B    0.413970   0.015412
    12  B    0.078858  -0.139639
 Sum of Mulliken charges =  -0.00000   1.00000

 Dipole moment (field-independent basis, Debye):
    X=              0.5548    Y=              1.4147    Z=             -0.0000  Tot=              1.5196
 Quadrupole moment (field-independent basis, Debye-Ang):
   XX=            -78.9430   YY=            -69.4090   ZZ=            -66.5560
   XY=              0.7835   XZ=             -0.0000   YZ=              0.0000

 Normal termination of Gaussian 16 at Sun Apr 26 10:12:52 2020.
