 Gaussian 09, Revision E.01,
 Gaussian 09:  ES64L-G09RevE.01 30-Nov-2015

 ----------------------------------------------------------------------
 # UVSXC/6-311+G(d) Geom=Check Guess=Read SCF=(VeryTight,MaxCyc=500,NoV
 arAcc,XQC) Int=(Grid=UltraFine,Acc2e=12)
 ----------------------------------------------------------------------

 -------------------------------------------------------------
 Single point of O2^+1 at the UVSXC/6-311+G(d) level of theory
 -------------------------------------------------------------
 Structure from the checkpoint file:  "O2_dft003_N-1.chk"
 Charge =  1 Multiplicity = 2

                         Standard orientation:
 ---------------------------------------------------------------------
 Center     Atomic      Atomic             Coordinates (Angstroms)
 Number     Number       Type             X           Y           Z
 ---------------------------------------------------------------------
      1          8           0        0.000000    0.000000    0.606857
      2          8           0        0.000000    0.000000   -0.606857
 ---------------------------------------------------------------------

 SCF Done:  E(UVSXC) =  -149.939407676     A.U. after    8 cycles

 Unable to determine electronic state:  partially filled degenerate orbitals.
 Alpha  occ. eigenvalues --  -19.53463 -19.53458  -1.70838  -1.21769  -0.95052
 Alpha  occ. eigenvalues --   -0.94928  -0.93958  -0.70221
 Alpha virt. eigenvalues --   -0.68580  -0.29916  -0.16134  -0.08600  -0.08488
 Alpha virt. eigenvalues --   -0.06982  -0.01451   0.00900   0.01551   0.14140
 Alpha virt. eigenvalues --    0.58195   0.59121   0.62355   0.62890   0.67507

  Beta  occ. eigenvalues --  -19.51866 -19.51861  -1.67925  -1.17455  -0.92306
  Beta  occ. eigenvalues --   -0.91926  -0.87448
  Beta virt. eigenvalues --   -0.66056  -0.61221  -0.26830  -0.15848  -0.08592
  Beta virt. eigenvalues --   -0.07755  -0.06448  -0.01680   0.01592   0.02298
  Beta virt. eigenvalues --    0.14513   0.59732   0.62014   0.62691   0.63220

 Mulliken charges and spin densities:
               1          2
     1  O    0.500000   0.500000
     2  O    0.500000   0.500000
 Sum of Mulliken charges =   1.00000   1.00000

 Dipole moment (field-independent basis, Debye):
    X=             -0.0000    Y=             -0.0000    Z=             -0.0000  Tot=              0.0000
 Quadrupole moment (field-independent basis, Debye-Ang):
   XX=             -8.0126   YY=             -8.0126   ZZ=             -6.4937
   XY=              0.3870   XZ=              0.0000   YZ=              0.0000

 Normal termination of Gaussian 09 at Sun Aug  2 22:49:27 2020.
