 Gaussian 09, Revision E.01,
 Gaussian 09:  ES64L-G09RevE.01 30-Nov-2015

 ----------------------------------------------------------------------
 # UTPSSTPSS/6-311+G(d) Geom=Check Guess=Read SCF=(VeryTight,MaxCyc=500
 ,NoVarAcc,XQC) Int=(Grid=UltraFine,Acc2e=12)
 ----------------------------------------------------------------------

 -----------------------------------------------------------------
 Single point of O2^-1 at the UTPSSTPSS/6-311+G(d) level of theory
 -----------------------------------------------------------------
 Structure from the checkpoint file:  "O2_dft004_N+1.chk"
 Charge = -1 Multiplicity = 2

                         Standard orientation:
 ---------------------------------------------------------------------
 Center     Atomic      Atomic             Coordinates (Angstroms)
 Number     Number       Type             X           Y           Z
 ---------------------------------------------------------------------
      1          8           0        0.000000    0.000000    0.610314
      2          8           0        0.000000    0.000000   -0.610314
 ---------------------------------------------------------------------

 SCF Done:  E(UTPSS-TPSS) =  -150.389583694     A.U. after    9 cycles

 Unable to determine electronic state:  partially filled degenerate orbitals.
 Alpha  occ. eigenvalues --  -18.62098 -18.62093  -0.82581  -0.38823  -0.13238
 Alpha  occ. eigenvalues --   -0.12477  -0.09309   0.10980   0.15073
 Alpha virt. eigenvalues --    0.28858   0.30318   0.33988   0.34785   0.40033
 Alpha virt. eigenvalues --    0.40694   0.41129   0.53783   0.55298   1.20806
 Alpha virt. eigenvalues --    1.22314   1.22677   1.23364   1.27119   1.29405

  Beta  occ. eigenvalues --  -18.60709 -18.60704  -0.80284  -0.35362  -0.10887
  Beta  occ. eigenvalues --   -0.08413  -0.06921   0.16142
  Beta virt. eigenvalues --    0.18484   0.29295   0.30823   0.34954   0.35057
  Beta virt. eigenvalues --    0.40928   0.41342   0.41609   0.54476   0.57229
  Beta virt. eigenvalues --    1.23241   1.23665   1.24006   1.24730   1.30179

 Mulliken charges and spin densities:
               1          2
     1  O   -0.500000   0.500000
     2  O   -0.500000   0.500000
 Sum of Mulliken charges =  -1.00000   1.00000

 Dipole moment (field-independent basis, Debye):
    X=             -0.0000    Y=              0.0000    Z=             -0.0000  Tot=              0.0000
 Quadrupole moment (field-independent basis, Debye-Ang):
   XX=            -12.7040   YY=            -14.3840   ZZ=            -16.9273
   XY=              0.0000   XZ=              0.0000   YZ=              0.0000

 Normal termination of Gaussian 09 at Sun Aug  2 22:41:34 2020.
