 Gaussian 09, Revision E.01,
 Gaussian 09:  ES64L-G09RevE.01 30-Nov-2015

 ----------------------------------------------------------------------
 # UVSXC/6-311+G(d) Geom=Check Guess=Read SCF=(VeryTight,MaxCyc=500,NoV
 arAcc,XQC) Int=(Grid=UltraFine,Acc2e=12)
 ----------------------------------------------------------------------

 -------------------------------------------------------------
 Single point of O2^-1 at the UVSXC/6-311+G(d) level of theory
 -------------------------------------------------------------
 Structure from the checkpoint file:  "O2_dft003_N+1.chk"
 Charge = -1 Multiplicity = 2

                         Standard orientation:
 ---------------------------------------------------------------------
 Center     Atomic      Atomic             Coordinates (Angstroms)
 Number     Number       Type             X           Y           Z
 ---------------------------------------------------------------------
      1          8           0        0.000000    0.000000    0.606857
      2          8           0        0.000000    0.000000   -0.606857
 ---------------------------------------------------------------------

 SCF Done:  E(UVSXC) =  -150.401469300     A.U. after   12 cycles

 Unable to determine electronic state:  partially filled degenerate orbitals.
 Alpha  occ. eigenvalues --  -18.59145 -18.59141  -0.84491  -0.39202  -0.13722
 Alpha  occ. eigenvalues --   -0.13369  -0.10055   0.11232   0.14966
 Alpha virt. eigenvalues --    0.30389   0.31213   0.35949   0.36572   0.41051
 Alpha virt. eigenvalues --    0.41749   0.43286   0.56354   0.56645   1.23209
 Alpha virt. eigenvalues --    1.24964   1.25482   1.25589   1.29666   1.31739

  Beta  occ. eigenvalues --  -18.57779 -18.57774  -0.81593  -0.35016  -0.11034
  Beta  occ. eigenvalues --   -0.08308  -0.07295   0.17069
  Beta virt. eigenvalues --    0.18781   0.30682   0.31701   0.36283   0.36657
  Beta virt. eigenvalues --    0.41702   0.42833   0.43875   0.56612   0.59402
  Beta virt. eigenvalues --    1.25500   1.26186   1.26252   1.27628   1.32097

 Mulliken charges and spin densities:
               1          2
     1  O   -0.500000   0.500000
     2  O   -0.500000   0.500000
 Sum of Mulliken charges =  -1.00000   1.00000

 Dipole moment (field-independent basis, Debye):
    X=              0.0000    Y=             -0.0000    Z=             -0.0000  Tot=              0.0000
 Quadrupole moment (field-independent basis, Debye-Ang):
   XX=            -13.6689   YY=            -13.3478   ZZ=            -16.9089
   XY=              0.8337   XZ=              0.0000   YZ=             -0.0000

 Normal termination of Gaussian 09 at Sun Aug  2 22:41:28 2020.
