 Gaussian 09, Revision E.01,
 Gaussian 09:  ES64L-G09RevE.01 30-Nov-2015

 ----------------------------------------------------------------------
 # UPBE1PBE/6-311+G(d) Geom=Check Guess=Read SCF=(VeryTight,MaxCyc=500,
 NoVarAcc,XQC) Int=(Grid=UltraFine,Acc2e=12)
 ----------------------------------------------------------------------

 ----------------------------------------------------------------
 Single point of O2^-1 at the UPBE1PBE/6-311+G(d) level of theory
 ----------------------------------------------------------------
 Structure from the checkpoint file:  "O2_dft005_N+1.chk"
 Charge = -1 Multiplicity = 2

                         Standard orientation:
 ---------------------------------------------------------------------
 Center     Atomic      Atomic             Coordinates (Angstroms)
 Number     Number       Type             X           Y           Z
 ---------------------------------------------------------------------
      1          8           0        0.000000    0.000000    0.596540
      2          8           0        0.000000    0.000000   -0.596540
 ---------------------------------------------------------------------

 SCF Done:  E(UPBE1PBE) =  -150.206058056     A.U. after   10 cycles

 Unable to determine electronic state:  an orbital has unidentified symmetry.
 Alpha  occ. eigenvalues --  -18.93996 -18.93973  -0.95523  -0.46629  -0.21471
 Alpha  occ. eigenvalues --   -0.19227  -0.17353   0.05663   0.10031
 Alpha virt. eigenvalues --    0.30944   0.32467   0.35879   0.36692   0.42028
 Alpha virt. eigenvalues --    0.42766   0.43120   0.56131   0.65135   1.25844
 Alpha virt. eigenvalues --    1.26187   1.28487   1.28990   1.32407   1.34884

  Beta  occ. eigenvalues --  -18.92500 -18.92469  -0.92568  -0.41996  -0.17222
  Beta  occ. eigenvalues --   -0.16007  -0.12334   0.11662
  Beta virt. eigenvalues --    0.24136   0.31329   0.32961   0.36797   0.36989
  Beta virt. eigenvalues --    0.43006   0.43217   0.44449   0.56666   0.67317
  Beta virt. eigenvalues --    1.26869   1.29133   1.29887   1.29952   1.35633

 Mulliken charges and spin densities:
               1          2
     1  O   -0.500000   0.500000
     2  O   -0.500000   0.500000
 Sum of Mulliken charges =  -1.00000   1.00000

 Dipole moment (field-independent basis, Debye):
    X=              0.0000    Y=              0.0000    Z=             -0.0000  Tot=              0.0000
 Quadrupole moment (field-independent basis, Debye-Ang):
   XX=            -13.3689   YY=            -13.3920   ZZ=            -16.7671
   XY=             -0.8084   XZ=             -0.0000   YZ=             -0.0000

 Normal termination of Gaussian 09 at Sun Aug  2 22:41:40 2020.
