 Gaussian 09, Revision E.01,
 Gaussian 09:  ES64L-G09RevE.01 30-Nov-2015

 ----------------------------------------------------------------------
 # UM06/6-311+G(d) Geom=Check Guess=Read SCF=(VeryTight,MaxCyc=500,NoVa
 rAcc,XQC) Int=(Grid=UltraFine,Acc2e=12)
 ----------------------------------------------------------------------

 -----------------------------------------------------------
 Single point of O2^+ at the UM06/6-311+G(d) level of theory
 -----------------------------------------------------------
 Structure from the checkpoint file:  "O2_dft001_N-1.chk"
 Charge =  1 Multiplicity = 2

                         Standard orientation:
 ---------------------------------------------------------------------
 Center     Atomic      Atomic             Coordinates (Angstroms)
 Number     Number       Type             X           Y           Z
 ---------------------------------------------------------------------
      1          8           0        0.000000    0.000000    0.597924
      2          8           0        0.000000    0.000000   -0.597924
 ---------------------------------------------------------------------

 SCF Done:  E(UM06) =  -149.810623876     A.U. after    8 cycles

 Unable to determine electronic state:  partially filled degenerate orbitals.
 Alpha  occ. eigenvalues --  -19.90492 -19.90458  -1.81980  -1.29472  -1.03113
 Alpha  occ. eigenvalues --   -1.02707  -1.00625  -0.76193
 Alpha virt. eigenvalues --   -0.63246  -0.23768  -0.19726  -0.15054  -0.14997
 Alpha virt. eigenvalues --   -0.11888  -0.07544  -0.05984  -0.05636   0.08085
 Alpha virt. eigenvalues --    0.55199   0.55550   0.59299   0.61158   0.64986

  Beta  occ. eigenvalues --  -19.89067 -19.89023  -1.78605  -1.25513  -0.99140
  Beta  occ. eigenvalues --   -0.98821  -0.95220
  Beta virt. eigenvalues --   -0.60897  -0.57181  -0.21614  -0.19338  -0.14903
  Beta virt. eigenvalues --   -0.13942  -0.10597  -0.07426  -0.05308  -0.04395
  Beta virt. eigenvalues --    0.08473   0.55690   0.57473   0.59608   0.61651

 Mulliken charges and spin densities:
               1          2
     1  O    0.500000   0.500000
     2  O    0.500000   0.500000
 Sum of Mulliken charges =   1.00000   1.00000

 Dipole moment (field-independent basis, Debye):
    X=              0.0000    Y=             -0.0000    Z=             -0.0000  Tot=              0.0000
 Quadrupole moment (field-independent basis, Debye-Ang):
   XX=             -8.4100   YY=             -7.6274   ZZ=             -6.5655
   XY=              0.0000   XZ=             -0.0000   YZ=             -0.0000

 Normal termination of Gaussian 09 at Sun Aug  2 22:49:21 2020.
