 Gaussian 09, Revision E.01,
 Gaussian 09:  ES64L-G09RevE.01 30-Nov-2015

 ----------------------------------------------------------------------
 # UVSXC/6-311+G(d) Geom=Check Guess=Read SCF=(VeryTight,MaxCyc=500,NoV
 arAcc,XQC) Int=(Grid=UltraFine,Acc2e=12)
 ----------------------------------------------------------------------

 Single point of a molecule of dioxygen at the UVSXC/6-311+G(d) level o
 f theory
 ----------------------------------------------------------------------
 Structure from the checkpoint file:  "O2_dft003_N.chk"
 Charge =  0 Multiplicity = 3

                         Standard orientation:
 ---------------------------------------------------------------------
 Center     Atomic      Atomic             Coordinates (Angstroms)
 Number     Number       Type             X           Y           Z
 ---------------------------------------------------------------------
      1          8           0        0.000000    0.000000    0.606857
      2          8           0        0.000000    0.000000   -0.606857
 ---------------------------------------------------------------------

 SCF Done:  E(UVSXC) =  -150.412762710     A.U. after    1 cycles

 The electronic state is 3-SGG.
 Alpha  occ. eigenvalues --  -19.01219 -19.01215  -1.24817  -0.78750  -0.51560
 Alpha  occ. eigenvalues --   -0.51359  -0.51359  -0.26546  -0.26546
 Alpha virt. eigenvalues --    0.08349   0.09156   0.14928   0.14928   0.20668
 Alpha virt. eigenvalues --    0.21641   0.21909   0.21909   0.35471   0.92174
 Alpha virt. eigenvalues --    0.92174   0.94905   0.95306   1.00069   1.00069

  Beta  occ. eigenvalues --  -18.98313 -18.98308  -1.19031  -0.70295  -0.46534
  Beta  occ. eigenvalues --   -0.42615  -0.42615
  Beta virt. eigenvalues --   -0.15924  -0.15924   0.09812   0.10351   0.15370
  Beta virt. eigenvalues --    0.15370   0.20908   0.23778   0.23778   0.25287
  Beta virt. eigenvalues --    0.36268   0.95830   0.96456   0.97020   0.97020

 Mulliken charges and spin densities:
               1          2
     1  O   -0.000000   1.000000
     2  O   -0.000000   1.000000
 Sum of Mulliken charges =  -0.00000   2.00000

 Dipole moment (field-independent basis, Debye):
    X=              0.0000    Y=              0.0000    Z=              0.0000  Tot=              0.0000
 Quadrupole moment (field-independent basis, Debye-Ang):
   XX=            -10.0336   YY=            -10.0336   ZZ=            -10.7119
   XY=             -0.0000   XZ=              0.0000   YZ=              0.0000

 Normal termination of Gaussian 09 at Sun Aug  2 22:32:11 2020.
