 Gaussian 09, Revision E.01,
 Gaussian 09:  ES64L-G09RevE.01 30-Nov-2015

 ----------------------------------------------------------------------
 # UM06/6-311+G(d) Geom=Check Guess=Read SCF=(VeryTight,MaxCyc=500,NoVa
 rAcc,XQC) Int=(Grid=UltraFine,Acc2e=12)
 ----------------------------------------------------------------------

 ------------------------------------------------------------
 Single point of O2^-1 at the UM06/6-311+G(d) level of theory
 ------------------------------------------------------------
 Structure from the checkpoint file:  "O2_dft001_N+1.chk"
 Charge = -1 Multiplicity = 2

                         Standard orientation:
 ---------------------------------------------------------------------
 Center     Atomic      Atomic             Coordinates (Angstroms)
 Number     Number       Type             X           Y           Z
 ---------------------------------------------------------------------
      1          8           0        0.000000    0.000000    0.597924
      2          8           0        0.000000    0.000000   -0.597924
 ---------------------------------------------------------------------

 SCF Done:  E(UM06) =  -150.291262959     A.U. after   10 cycles

 Unable to determine electronic state:  an orbital has unidentified symmetry.
 Alpha  occ. eigenvalues --  -18.94997 -18.94976  -0.95262  -0.46884  -0.20988
 Alpha  occ. eigenvalues --   -0.19888  -0.17957   0.06077   0.09100
 Alpha virt. eigenvalues --    0.29025   0.32231   0.34517   0.35684   0.40595
 Alpha virt. eigenvalues --    0.41032   0.42114   0.52857   0.63225   1.22905
 Alpha virt. eigenvalues --    1.22956   1.24907   1.25451   1.29661   1.32356

  Beta  occ. eigenvalues --  -18.93909 -18.93880  -0.91602  -0.42323  -0.17390
  Beta  occ. eigenvalues --   -0.15895  -0.13308   0.11673
  Beta virt. eigenvalues --    0.23019   0.29086   0.32405   0.35566   0.35948
  Beta virt. eigenvalues --    0.41086   0.42265   0.42412   0.53032   0.65158
  Beta virt. eigenvalues --    1.23512   1.24531   1.25399   1.26237   1.31633

 Mulliken charges and spin densities:
               1          2
     1  O   -0.500000   0.500000
     2  O   -0.500000   0.500000
 Sum of Mulliken charges =  -1.00000   1.00000

 Dipole moment (field-independent basis, Debye):
    X=             -0.0000    Y=             -0.0000    Z=             -0.0000  Tot=              0.0000
 Quadrupole moment (field-independent basis, Debye-Ang):
   XX=            -14.1636   YY=            -12.5653   ZZ=            -16.7218
   XY=              0.0000   XZ=              0.0000   YZ=              0.0000

 Normal termination of Gaussian 09 at Sun Aug  2 22:41:16 2020.
