 Gaussian 09, Revision E.01,
 Gaussian 09:  ES64L-G09RevE.01 30-Nov-2015

 ----------------------------------------------------------------------
 # UPBE1PBE/6-311+G(d) Geom=Check Guess=Read SCF=(VeryTight,MaxCyc=500,
 NoVarAcc,XQC) Int=(Grid=UltraFine,Acc2e=12)
 ----------------------------------------------------------------------

 Single point of a molecule of dioxygen at the UPBE1PBE/6-311+G(d) leve
 l of theory
 ----------------------------------------------------------------------
 Structure from the checkpoint file:  "O2_dft005_N.chk"
 Charge =  0 Multiplicity = 3

                         Standard orientation:
 ---------------------------------------------------------------------
 Center     Atomic      Atomic             Coordinates (Angstroms)
 Number     Number       Type             X           Y           Z
 ---------------------------------------------------------------------
      1          8           0        0.000000    0.000000    0.596540
      2          8           0        0.000000    0.000000   -0.596540
 ---------------------------------------------------------------------

 SCF Done:  E(UPBE1PBE) =  -150.214688011     A.U. after    1 cycles

 The electronic state is 3-SGG.
 Alpha  occ. eigenvalues --  -19.36975 -19.36952  -1.36587  -0.87070  -0.59949
 Alpha  occ. eigenvalues --   -0.59949  -0.57954  -0.33017  -0.33017
 Alpha virt. eigenvalues --    0.09450   0.10096   0.14036   0.14036   0.20559
 Alpha virt. eigenvalues --    0.21741   0.21741   0.27686   0.34939   0.93941
 Alpha virt. eigenvalues --    0.93941   0.95331   0.97514   1.01556   1.01556

  Beta  occ. eigenvalues --  -19.33784 -19.33744  -1.30529  -0.77462  -0.53766
  Beta  occ. eigenvalues --   -0.48607  -0.48607
  Beta virt. eigenvalues --   -0.10778  -0.10778   0.10360   0.11330   0.15136
  Beta virt. eigenvalues --    0.15136   0.20760   0.23420   0.23420   0.31810
  Beta virt. eigenvalues --    0.35899   0.96529   0.98592   0.98592   0.99090

 Mulliken charges and spin densities:
               1          2
     1  O   -0.000000   1.000000
     2  O   -0.000000   1.000000
 Sum of Mulliken charges =  -0.00000   2.00000

 Dipole moment (field-independent basis, Debye):
    X=             -0.0000    Y=             -0.0000    Z=              0.0000  Tot=              0.0000
 Quadrupole moment (field-independent basis, Debye-Ang):
   XX=            -10.0420   YY=            -10.0420   ZZ=            -10.7738
   XY=             -0.0000   XZ=              0.0000   YZ=              0.0000

 Normal termination of Gaussian 09 at Sun Aug  2 22:32:19 2020.
