 Gaussian 09, Revision E.01,
 Gaussian 09:  ES64L-G09RevE.01 30-Nov-2015

 ----------------------------------------------------------------------
 # UBLYP/6-311+G(d) Geom=Check Guess=Read SCF=(VeryTight,MaxCyc=500,NoV
 arAcc,XQC) Int=(Grid=UltraFine,Acc2e=12)
 ----------------------------------------------------------------------

 Single point of a molecule of dioxygen at the UBLYP/6-311+
 G(d) level of theory
 ----------------------------------------------------------------------
 Structure from the checkpoint file:  "O2_dft002_N.chk"
 Charge =  0 Multiplicity = 3

                         Standard orientation:
 ---------------------------------------------------------------------
 Center     Atomic      Atomic             Coordinates (Angstroms)
 Number     Number       Type             X           Y           Z
 ---------------------------------------------------------------------
      1          8           0        0.000000    0.000000    0.615913
      2          8           0        0.000000    0.000000   -0.615913
 ---------------------------------------------------------------------

 SCF Done:  E(UB-LYP) =  -150.369260497     A.U. after    1 cycles

 The electronic state is 3-SGG.
 Alpha  occ. eigenvalues --  -18.93011 -18.93008  -1.19310  -0.75729  -0.49557
 Alpha  occ. eigenvalues --   -0.49072  -0.49072  -0.25995  -0.25995
 Alpha virt. eigenvalues --    0.05225   0.06035   0.11094   0.11094   0.17109
 Alpha virt. eigenvalues --    0.17480   0.18706   0.18706   0.31675   0.87500
 Alpha virt. eigenvalues --    0.87500   0.89656   0.90521   0.95074   0.95074

  Beta  occ. eigenvalues --  -18.90433 -18.90431  -1.14801  -0.69210  -0.46198
  Beta  occ. eigenvalues --   -0.42197  -0.42197
  Beta virt. eigenvalues --   -0.17711  -0.17711   0.06752   0.06776   0.11894
  Beta virt. eigenvalues --    0.11894   0.17454   0.19723   0.19723   0.19843
  Beta virt. eigenvalues --    0.32398   0.90988   0.91148   0.91148   0.91689

 Mulliken charges and spin densities:
               1          2
     1  O    0.000000   1.000000
     2  O    0.000000   1.000000
 Sum of Mulliken charges =   0.00000   2.00000

 Dipole moment (field-independent basis, Debye):
    X=             -0.0000    Y=              0.0000    Z=             -0.0000  Tot=              0.0000
 Quadrupole moment (field-independent basis, Debye-Ang):
   XX=            -10.2241   YY=            -10.2241   ZZ=            -10.8917
   XY=              0.0000   XZ=              0.0000   YZ=              0.0000

 Normal termination of Gaussian 09 at Sun Aug  2 22:31:53 2020.
