 Gaussian 09, Revision E.01,
 Gaussian 09:  ES64L-G09RevE.01 30-Nov-2015

 ----------------------------------------------------------------------
 # UM06/6-311+G(d) Geom=Check Guess=Read SCF=(VeryTight,MaxCyc=500,NoVa
 rAcc,XQC) Int=(Grid=UltraFine,Acc2e=12)
 ----------------------------------------------------------------------

 Single point of a molecule of dioxygen at the UM06/6-311+G(d) level of
  theory
 ----------------------------------------------------------------------
 Structure from the checkpoint file:  "O2_dft001_N.chk"
 Charge =  0 Multiplicity = 3

                         Standard orientation:
 ---------------------------------------------------------------------
 Center     Atomic      Atomic             Coordinates (Angstroms)
 Number     Number       Type             X           Y           Z
 ---------------------------------------------------------------------
      1          8           0        0.000000    0.000000    0.597924
      2          8           0        0.000000    0.000000   -0.597924
 ---------------------------------------------------------------------

 SCF Done:  E(UM06) =  -150.291343553     A.U. after    1 cycles

 The electronic state is 3-SGG.
 Alpha  occ. eigenvalues --  -19.37995 -19.37973  -1.36452  -0.87011  -0.59628
 Alpha  occ. eigenvalues --   -0.59628  -0.59160  -0.32786  -0.32786
 Alpha virt. eigenvalues --    0.05466   0.06157   0.09117   0.09117   0.15585
 Alpha virt. eigenvalues --    0.15585   0.16012   0.24553   0.30112   0.89705
 Alpha virt. eigenvalues --    0.89705   0.91323   0.93045   0.97312   0.97312

  Beta  occ. eigenvalues --  -19.35545 -19.35505  -1.29471  -0.78540  -0.53213
  Beta  occ. eigenvalues --   -0.49959  -0.49959
  Beta virt. eigenvalues --   -0.12147  -0.12147   0.06509   0.07095   0.10350
  Beta virt. eigenvalues --    0.10350   0.16256   0.17729   0.17729   0.29312
  Beta virt. eigenvalues --    0.31010   0.92127   0.92127   0.92268   0.94141

 Mulliken charges and spin densities:
               1          2
     1  O   -0.000000   1.000000
     2  O   -0.000000   1.000000
 Sum of Mulliken charges =  -0.00000   2.00000

 Dipole moment (field-independent basis, Debye):
    X=             -0.0000    Y=              0.0000    Z=              0.0000  Tot=              0.0000
 Quadrupole moment (field-independent basis, Debye-Ang):
   XX=            -10.0330   YY=            -10.0330   ZZ=            -10.7467
   XY=              0.0000   XZ=              0.0000   YZ=              0.0000

 Normal termination of Gaussian 09 at Sun Aug  2 22:31:27 2020.
