 Gaussian 09, Revision E.01,
 Gaussian 09:  ES64L-G09RevE.01 30-Nov-2015

 ----------------------------------------------------------------------
 # UTPSSTPSS/6-311+G(d) Geom=Check Guess=Read SCF=(VeryTight,MaxCyc=500
 ,NoVarAcc,XQC) Int=(Grid=UltraFine,Acc2e=12)
 ----------------------------------------------------------------------

 -----------------------------------------------------------------
 Single point of O2^+1 at the UTPSSTPSS/6-311+G(d) level of theory
 -----------------------------------------------------------------
 Structure from the checkpoint file:  "O2_dft004_N-1.chk"
 Charge =  1 Multiplicity = 2

                         Standard orientation:
 ---------------------------------------------------------------------
 Center     Atomic      Atomic             Coordinates (Angstroms)
 Number     Number       Type             X           Y           Z
 ---------------------------------------------------------------------
      1          8           0        0.000000    0.000000    0.610314
      2          8           0        0.000000    0.000000   -0.610314
 ---------------------------------------------------------------------

 SCF Done:  E(UTPSS-TPSS) =  -149.922876949     A.U. after    8 cycles

 Unable to determine electronic state:  partially filled degenerate orbitals.
 Alpha  occ. eigenvalues --  -19.55901 -19.55895  -1.68549  -1.21349  -0.94437
 Alpha  occ. eigenvalues --   -0.93843  -0.92774  -0.70585
 Alpha virt. eigenvalues --   -0.68046  -0.30876  -0.18269  -0.11196  -0.11172
 Alpha virt. eigenvalues --   -0.09045  -0.03974  -0.01162  -0.00977   0.11702
 Alpha virt. eigenvalues --    0.55689   0.56068   0.59906   0.60241   0.64912

  Beta  occ. eigenvalues --  -19.54285 -19.54279  -1.66141  -1.17552  -0.92264
  Beta  occ. eigenvalues --   -0.91562  -0.86805
  Beta virt. eigenvalues --   -0.66538  -0.61321  -0.28777  -0.17779  -0.11005
  Beta virt. eigenvalues --   -0.10182  -0.08631  -0.03810  -0.00768  -0.00182
  Beta virt. eigenvalues --    0.12068   0.56718   0.59204   0.60542   0.60907

 Mulliken charges and spin densities:
               1          2
     1  O    0.500000   0.500000
     2  O    0.500000   0.500000
 Sum of Mulliken charges =   1.00000   1.00000

 Dipole moment (field-independent basis, Debye):
    X=              0.0000    Y=             -0.0000    Z=              0.0000  Tot=              0.0000
 Quadrupole moment (field-independent basis, Debye-Ang):
   XX=             -7.6621   YY=             -8.4443   ZZ=             -6.4841
   XY=              0.0000   XZ=             -0.0000   YZ=              0.0000

 Normal termination of Gaussian 09 at Sun Aug  2 22:49:29 2020.
