 Gaussian 09, Revision E.01,
 Gaussian 09:  ES64L-G09RevE.01 30-Nov-2015

 ----------------------------------------------------------------------
 # UBLYP/6-311+G(d) Geom=Check Guess=Read SCF=(VeryTight,MaxCyc=500,NoV
 arAcc,XQC) Int=(Grid=UltraFine,Acc2e=12)
 ----------------------------------------------------------------------

 -------------------------------------------------------------
 Single point of O2^+1 at the UBLYP/6-311+G(d) level of theory
 -------------------------------------------------------------
 Structure from the checkpoint file:  "O2_dft002_N-1.chk"
 Charge =  1 Multiplicity = 2

                         Standard orientation:
 ---------------------------------------------------------------------
 Center     Atomic      Atomic             Coordinates (Angstroms)
 Number     Number       Type             X           Y           Z
 ---------------------------------------------------------------------
      1          8           0        0.000000    0.000000    0.615913
      2          8           0        0.000000    0.000000   -0.615913
 ---------------------------------------------------------------------

 SCF Done:  E(UB-LYP) =  -149.899066029     A.U. after    8 cycles

 Unable to determine electronic state:  partially filled degenerate orbitals.
 Alpha  occ. eigenvalues --  -19.44577 -19.44575  -1.65050  -1.18946  -0.93004
 Alpha  occ. eigenvalues --   -0.92593  -0.91995  -0.69781
 Alpha virt. eigenvalues --   -0.68629  -0.33491  -0.19981  -0.12864  -0.12736
 Alpha virt. eigenvalues --   -0.10871  -0.05690  -0.02809  -0.02661   0.09957
 Alpha virt. eigenvalues --    0.53131   0.53158   0.57358   0.57815   0.62433

  Beta  occ. eigenvalues --  -19.43195 -19.43192  -1.62687  -1.15465  -0.91184
  Beta  occ. eigenvalues --   -0.90652  -0.86270
  Beta virt. eigenvalues --   -0.66994  -0.62207  -0.31497  -0.19625  -0.12737
  Beta virt. eigenvalues --   -0.11984  -0.10519  -0.05648  -0.02532  -0.02023
  Beta virt. eigenvalues --    0.10253   0.53693   0.56001   0.57936   0.58312

 Mulliken charges and spin densities:
               1          2
     1  O    0.500000   0.500000
     2  O    0.500000   0.500000
 Sum of Mulliken charges =   1.00000   1.00000

 Dipole moment (field-independent basis, Debye):
    X=              0.0000    Y=              0.0000    Z=             -0.0000  Tot=              0.0000
 Quadrupole moment (field-independent basis, Debye-Ang):
   XX=             -8.5230   YY=             -7.7340   ZZ=             -6.5276
   XY=              0.0000   XZ=             -0.0000   YZ=             -0.0000

 Normal termination of Gaussian 09 at Sun Aug  2 22:49:23 2020.
