 Gaussian 09, Revision E.01,
 Gaussian 09:  ES64L-G09RevE.01 30-Nov-2015

 ----------------------------------------------------------------------
 # UPBE1PBE/6-311+G(d) Geom=Check Guess=Read SCF=(VeryTight,MaxCyc=500,
 NoVarAcc,XQC) Int=(Grid=UltraFine,Acc2e=12)
 ----------------------------------------------------------------------

 ----------------------------------------------------------------
 Single point of O2^+1 at the UPBE1PBE/6-311+G(d) level of theory
 ----------------------------------------------------------------
 Structure from the checkpoint file:  "O2_dft005_N-1.chk"
 Charge =  1 Multiplicity = 2

                         Standard orientation:
 ---------------------------------------------------------------------
 Center     Atomic      Atomic             Coordinates (Angstroms)
 Number     Number       Type             X           Y           Z
 ---------------------------------------------------------------------
      1          8           0        0.000000    0.000000    0.596540
      2          8           0        0.000000    0.000000   -0.596540
 ---------------------------------------------------------------------

 SCF Done:  E(UPBE1PBE) =  -149.737844822     A.U. after    8 cycles

 Unable to determine electronic state:  partially filled degenerate orbitals.
 Alpha  occ. eigenvalues --  -19.89543 -19.89509  -1.82754  -1.29929  -1.04500
 Alpha  occ. eigenvalues --   -1.01962  -0.99899  -0.77790
 Alpha virt. eigenvalues --   -0.62731  -0.21965  -0.16323  -0.09539  -0.09528
 Alpha virt. eigenvalues --   -0.06287  -0.02424   0.00460   0.00746   0.13312
 Alpha virt. eigenvalues --    0.59138   0.59753   0.62150   0.64229   0.68388

  Beta  occ. eigenvalues --  -19.87823 -19.87780  -1.79648  -1.24927  -0.99749
  Beta  occ. eigenvalues --   -0.98425  -0.93621
  Beta virt. eigenvalues --   -0.60907  -0.55693  -0.19743  -0.15896  -0.09371
  Beta virt. eigenvalues --   -0.08557  -0.05665  -0.02322   0.00928   0.01540
  Beta virt. eigenvalues --    0.13658   0.60347   0.62638   0.62895   0.64883

 Mulliken charges and spin densities:
               1          2
     1  O    0.500000   0.500000
     2  O    0.500000   0.500000
 Sum of Mulliken charges =   1.00000   1.00000

 Dipole moment (field-independent basis, Debye):
    X=             -0.0000    Y=             -0.0000    Z=             -0.0000  Tot=              0.0000
 Quadrupole moment (field-independent basis, Debye-Ang):
   XX=             -8.0483   YY=             -8.0483   ZZ=             -6.6185
   XY=              0.3813   XZ=             -0.0000   YZ=              0.0000

 Normal termination of Gaussian 09 at Sun Aug  2 22:49:32 2020.
