 Gaussian 09, Revision E.01,
 Gaussian 09:  ES64L-G09RevE.01 30-Nov-2015

 ----------------------------------------------------------------------
 # UBLYP/6-311+G(d) Geom=Check Guess=Read SCF=(VeryTight,MaxCyc=500,NoV
 arAcc,XQC) Int=(Grid=UltraFine,Acc2e=12)
 ----------------------------------------------------------------------

 -------------------------------------------------------------
 Single point of O2^-1 at the UBLYP/6-311+G(d) level of theory
 -------------------------------------------------------------
 Structure from the checkpoint file:  "O2_dft002_N+1.chk"
 Charge = -1 Multiplicity = 2

                         Standard orientation:
 ---------------------------------------------------------------------
 Center     Atomic      Atomic             Coordinates (Angstroms)
 Number     Number       Type             X           Y           Z
 ---------------------------------------------------------------------
      1          8           0        0.000000    0.000000    0.615913
      2          8           0        0.000000    0.000000   -0.615913
 ---------------------------------------------------------------------

 SCF Done:  E(UB-LYP) =  -150.371057469     A.U. after    9 cycles

 Unable to determine electronic state:  partially filled degenerate orbitals.
 Alpha  occ. eigenvalues --  -18.51327 -18.51325  -0.79688  -0.36836  -0.12092
 Alpha  occ. eigenvalues --   -0.12060  -0.08504   0.11080   0.14818
 Alpha virt. eigenvalues --    0.27911   0.29167   0.33052   0.33747   0.38978
 Alpha virt. eigenvalues --    0.39491   0.39968   0.52446   0.52890   1.18727
 Alpha virt. eigenvalues --    1.19907   1.20781   1.21096   1.25204   1.27406

  Beta  occ. eigenvalues --  -18.50110 -18.50107  -0.77508  -0.33727  -0.10480
  Beta  occ. eigenvalues --   -0.07415  -0.06916   0.16086
  Beta virt. eigenvalues --    0.17143   0.28175   0.29550   0.33831   0.33831
  Beta virt. eigenvalues --    0.39633   0.39945   0.40320   0.53232   0.54305
  Beta virt. eigenvalues --    1.20654   1.21437   1.21685   1.21898   1.28066

 Mulliken charges and spin densities:
               1          2
     1  O   -0.500000   0.500000
     2  O   -0.500000   0.500000
 Sum of Mulliken charges =  -1.00000   1.00000

 Dipole moment (field-independent basis, Debye):
    X=             -0.0000    Y=              0.0000    Z=              0.0000  Tot=              0.0000
 Quadrupole moment (field-independent basis, Debye-Ang):
   XX=            -14.6781   YY=            -12.9429   ZZ=            -17.2736
   XY=              0.0000   XZ=              0.0000   YZ=              0.0000

 Normal termination of Gaussian 09 at Sun Aug  2 22:41:22 2020.
